file 98019 1748291532                                           
version 3
run General-0-20250526-17:11:21-51269
attr configname General
attr datetime 20250526-17:11:21
attr datetimef 20250526-171121
attr experiment General
attr inifile omnetpp.ini
attr iterationvars ""
attr iterationvarsd ""
attr iterationvarsf ""
attr measurement ""
attr network Network
attr processid 51269
attr repetition 0
attr replication #0
attr resultdir results
attr runnumber 0
attr seedset 0
config network Network
config sim-time-limit 200s
config Network.node[0].app.interArrivalTime exponential(1)
config Network.node[0].app.packetByteSize 125000
config Network.node[0].app.destination 5
config Network.node[2].app.interArrivalTime exponential(1)
config Network.node[2].app.packetByteSize 125000
config Network.node[2].app.destination 5

vector 0 Network.node[0].net charge ETV
vector 1 Network.node[0].lnk[0] "Buffer Size" ETV
vector 2 Network.node[2].net charge ETV
vector 3 Network.node[2].lnk[0] "Buffer Size" ETV
vector 4 Network.node[7].net charge ETV
vector 5 Network.node[7].lnk[0] "Buffer Size" ETV
vector 6 Network.node[1].net charge ETV
vector 7 Network.node[1].lnk[0] "Buffer Size" ETV
vector 8 Network.node[6].net charge ETV
vector 9 Network.node[6].lnk[0] "Buffer Size" ETV
vector 10 Network.node[5].net charge ETV
vector 11 Network.node[5].app Delay ETV
0	1287 243 2 113 0.898560388484 6.52596940626 11 1 1 11 11
1	1530 375 3 120 0.898560388484 6.773328855839 17 0 6 37 137
2	1905 109 9 103 1.859604212075 6.139447903807 5 1 1 5 5
3	2014 220 10 115 1.859604212075 6.563928706924 10 0 1 5 5
4	2234 88 14 92 1.898660388484 5.773428855839 4 1 1 4 4
5	2322 176 15 94 1.898660388484 5.773428855839 8 0 1 4 4
6	2498 88 22 117 2.859704212075 6.564028706924 4 1 1 4 4
7	2586 176 23 119 2.859704212075 6.564028706924 8 0 1 4 4
8	2762 66 32 96 2.898760388484 5.773528855839 3 1 1 3 3
9	2828 132 33 98 2.898760388484 5.773528855839 6 0 1 3 3
10	2960 46 55 75 3.898860388484 4.898860388484 2 1 1 2 2
11	3006 64 56 76 3.898860388484 4.898860388484 2 3.0003 3.077076868529 6.077376868529 18.470202144836
0	3070 69 141 191 7.564128706924 9.512968020783 3 1 1 3 3
1	3139 92 142 168 7.564128706924 8.773328855839 4 5 6 22 122
2	3231 69 158 183 8.362972325843 9.164930571633 3 1 1 3 3
3	3300 115 159 185 8.362972325843 9.362972325843 5 0 2 5 7
4	3415 69 123 171 6.773428855839 8.773428855839 3 1 1 3 3
5	3484 138 124 173 6.773428855839 8.773428855839 6 0 1 3 3
6	3622 46 137 187 7.564028706924 9.363072325843 2 1 1 2 2
7	3668 92 138 189 7.564028706924 9.363072325843 4 0 1 2 2
8	3760 69 128 176 6.773528855839 8.773528855839 3 1 1 3 3
9	3829 138 129 178 6.773528855839 8.773528855839 6 0 1 3 3
10	3967 72 132 180 6.773628855839 8.773628855839 3 1 1 3 3
11	4039 102 133 181 6.773628855839 8.773628855839 3 3.0003 5.914024643764 13.363576157094 63.773326605917
0	4141 144 217 281 10.363172325843 12.673971104619 6 1 1 6 6
1	4285 262 192 283 9.512968020783 12.773328855839 11 5 9 73 501
2	4547 94 208 278 9.814376919884 12.639342696446 4 1 1 4 4
3	4641 166 209 279 9.814376919884 12.639342696446 7 0 2 9 15
4	4807 95 196 286 9.773428855839 12.773428855839 4 1 1 4 4
5	4902 190 197 288 9.773428855839 12.773428855839 8 0 1 4 4
6	5092 72 213 271 10.363072325843 12.363072325843 3 1 1 3 3
7	5164 144 214 273 10.363072325843 12.363072325843 6 0 1 3 3
8	5308 95 201 291 9.773528855839 12.773528855839 4 1 1 4 4
9	5403 190 202 293 9.773528855839 12.773528855839 8 0 1 4 4
10	5593 74 205 260 9.773628855839 11.773628855839 3 1 1 3 3
11	5667 113 206 261 9.773628855839 11.773628855839 3 5.472245086937 7.126823503782 18.586185513934 116.58264859781
0	5780 24 304 304 13.363172325843 13.363172325843 1 1 1 1 1
1	5804 48 305 306 13.363172325843 13.773328855839 2 8 9 17 145
3	5852 48 297 320 13.362972325843 14.362972325843 2 0 1 1 1
4	5900 24 309 309 13.773428855839 13.773428855839 1 1 1 1 1
5	5924 48 310 311 13.773428855839 13.773428855839 2 0 1 1 1
6	5972 24 300 300 13.363072325843 13.363072325843 1 1 1 1 1
7	5996 48 301 302 13.363072325843 13.363072325843 2 0 1 1 1
8	6044 24 314 314 13.773528855839 13.773528855839 1 1 1 1 1
9	6068 48 315 316 13.773528855839 13.773528855839 2 0 1 1 1
10	6116 50 295 318 12.773628855839 13.773628855839 2 1 1 2 2
11	6166 76 296 319 12.773628855839 13.773628855839 2 6.633957784077 7.575573114984 14.209530899061 101.39870390138
0	6242 9269 327 5585 14.363172325843 198.663423511276 366 1 1 366 366
1	15511 14817 328 5612 14.363172325843 199.773328855839 552 9 190 54302 6820328
2	30328 4476 356 5605 15.237596782295 199.581142627156 177 1 1 177 177
3	34804 8953 357 5607 15.237596782295 199.64888529358 353 0 10 1221 6433
4	43757 4725 338 5615 14.773428855839 199.773428855839 186 1 1 186 186
5	48482 9450 339 5617 14.773428855839 199.773428855839 372 0 1 186 186
6	57932 4501 323 5609 14.363072325843 199.64898529358 177 1 1 177 177
7	62433 9002 324 5611 14.363072325843 199.64898529358 354 0 1 177 177
8	71435 4725 343 5620 14.773528855839 199.773528855839 186 1 1 186 186
9	76160 9452 344 5622 14.773528855839 199.773528855839 372 0 1 186 186
10	85612 4912 347 5624 14.773628855839 199.773628855839 186 1 1 186 186
11	90524 7494 348 5625 14.773628855839 199.773628855839 186 8.260660835056 105.5643977967 9974.9585126289 669709.2540155

