version 3
run General-0-20250511-05:04:22-7058
attr configname General
attr datetime 20250511-05:04:22
attr datetimef 20250511-050422
attr experiment General
attr inifile omnetpp.ini
attr iterationvars ""
attr iterationvarsd ""
attr iterationvarsf ""
attr measurement ""
attr network Network
attr processid 7058
attr repetition 0
attr replication #0
attr resultdir results
attr runnumber 0
attr seedset 0
config network Network
config sim-time-limit 200s
config Network.nodeTx.gen.generationInterval exponential(0.001)
config Network.nodeTx.gen.packetByteSize 12500
config Network.nodeTx.queue.bufferSize 2000000
config Network.queue.bufferSize 200
config Network.nodeRx.queue.bufferSize 200

vector 0 Network.nodeTx.queue bufferSize ETV
vector 1 Network.queue bufferSize ETV
vector 2 Network.nodeRx.queue bufferSize ETV
vector 3 Network.nodeRx.sink Delay ETV
0	2	0.000795874505	1
0	5	0.001694434893	1
0	7	0.002950365651	2
0	9	0.004809969863	3
0	11	0.005733192994	4
0	13	0.00768473833	5
0	15	0.00847193947	6
0	17	0.010350903524	7
0	19	0.010901952011	8
0	21	0.011878958437	9
0	23	0.012917117738	10
0	25	0.013402245902	11
0	27	0.013977765099	12
0	29	0.014330924238	13
0	31	0.01655444866	14
0	33	0.016612833329	15
0	35	0.019927745609	16
0	37	0.02024610175	17
0	39	0.020729703855	18
0	41	0.021379150203	19
0	43	0.022948046321	20
0	45	0.024620257521	21
0	47	0.025372931634	22
0	49	0.026026814201	23
0	51	0.026866247054	24
0	53	0.027365119063	25
0	55	0.029963373149	26
0	57	0.031771742413	27
0	59	0.031845427768	28
0	61	0.032257005764	29
0	63	0.03234816679	30
0	65	0.033392779298	31
0	67	0.033413204886	32
0	69	0.033872453023	33
0	71	0.035659940686	34
0	73	0.038810110615	35
0	75	0.040315894874	36
0	77	0.040467125728	37
0	79	0.042507439986	38
0	81	0.044548332202	39
0	83	0.048393554071	40
0	85	0.049035263244	41
0	87	0.050640502801	42
0	89	0.052254504876	43
0	91	0.052873434336	44
0	93	0.053608398757	45
0	95	0.055124934731	46
0	97	0.056260873673	47
0	99	0.056386748082	48
0	101	0.057661975784	49
0	103	0.058683407658	50
0	105	0.059555728853	51
0	107	0.059710458534	52
0	109	0.060481293192	53
0	111	0.06337571367	54
0	113	0.06479707835	55
0	115	0.065534905642	56
0	117	0.065646851803	57
0	119	0.066182417523	58
0	121	0.066824112225	59
0	123	0.067131392577	60
0	125	0.067337595859	61
0	127	0.068825850685	62
0	129	0.07016114087	63
0	131	0.070770223293	64
0	133	0.071014271784	65
0	135	0.07185460649	66
0	137	0.071999884517	67
0	139	0.072018853086	68
0	141	0.072410623897	69
0	143	0.073372004836	70
0	145	0.073534141325	71
0	147	0.074481138002	72
0	149	0.074732579934	73
0	151	0.075692127911	74
0	153	0.07618068496	75
0	155	0.079058599981	76
0	157	0.081387513355	77
0	159	0.08253265231	78
0	161	0.083130398387	79
0	163	0.083575916882	80
0	165	0.084525411465	81
0	167	0.085099943872	82
0	169	0.087426294934	83
0	171	0.088622402733	84
0	173	0.088726963959	85
0	175	0.088789079249	86
0	177	0.092289292933	87
0	179	0.093388205401	88
0	181	0.094447039532	89
0	183	0.095557636978	90
0	185	0.095745063044	91
0	187	0.09598126975	92
0	189	0.096424673779	93
0	191	0.096562702467	94
0	193	0.097951745157	95
0	195	0.098330707121	96
0	197	0.099266768681	97
0	199	0.099718870741	98
0	201	0.100111983298	99
0	206	0.100956411092	99
0	208	0.100995594248	100
0	210	0.101572918559	101
0	212	0.102578789564	102
0	214	0.10703328641	103
0	216	0.110226233052	104
0	218	0.11033386816	105
0	220	0.111391694573	106
0	222	0.111625996092	107
0	224	0.112634015337	108
0	226	0.112809928882	109
0	228	0.118170029232	110
0	230	0.119228771947	111
0	232	0.120100687801	112
0	234	0.120392768334	113
0	236	0.120927833011	114
0	238	0.121555774592	115
0	240	0.122199555594	116
0	242	0.122479832602	117
0	244	0.123456696676	118
0	246	0.123629824132	119
0	248	0.124042325362	120
0	250	0.124159280772	121
0	252	0.125282449074	122
0	254	0.126350521271	123
0	256	0.126732077114	124
0	258	0.126880789383	125
0	260	0.128387424716	126
0	262	0.128606305313	127
0	264	0.131593495205	128
0	266	0.132053509163	129
0	268	0.133139778544	130
0	270	0.134860110202	131
0	272	0.13487377478	132
0	274	0.134975919662	133
0	276	0.135951021596	134
0	278	0.137770840515	135
0	280	0.138890654881	136
0	282	0.138991689656	137
0	284	0.142565278028	138
0	286	0.146314309488	139
0	288	0.148419630789	140
0	290	0.149051967385	141
0	292	0.149764550978	142
0	294	0.153526478263	143
0	296	0.153583805189	144
0	298	0.154512283686	145
0	300	0.155112230573	146
0	302	0.156456475845	147
0	304	0.156476665973	148
0	306	0.156516642272	149
0	308	0.157099520661	150
0	310	0.157431930902	151
0	312	0.161323501025	152
0	314	0.16145155779	153
0	316	0.161896977252	154
0	318	0.162248153341	155
0	320	0.162903799625	156
0	322	0.163030188261	157
0	324	0.164197061788	158
0	326	0.164579762737	159
0	328	0.166703999934	160
0	330	0.16723888431	161
0	332	0.169742796093	162
0	334	0.169809093494	163
0	336	0.170053488942	164
0	338	0.171232678469	165
0	340	0.172065521985	166
0	342	0.172901619517	167
0	344	0.17490486004	168
0	346	0.17521327488	169
0	348	0.175924522817	170
0	350	0.176665281767	171
0	352	0.179150864124	172
0	354	0.179249514432	173
0	356	0.18178981894	174
0	358	0.182647714581	175
0	360	0.182734485063	176
0	362	0.185383740992	177
0	364	0.185709081408	178
0	366	0.186092641622	179
0	368	0.186102042373	180
0	370	0.187202888283	181
0	372	0.189050215934	182
0	374	0.189191546648	183
0	376	0.190233327302	184
0	378	0.191493261112	185
0	380	0.193334543583	186
0	382	0.19367619775	187
0	384	0.193983715474	188
0	386	0.194186065913	189
0	388	0.194693266036	190
0	390	0.195576395078	191
0	392	0.196381192478	192
0	394	0.196401504937	193
0	396	0.196581757189	194
0	398	0.198347498261	195
0	400	0.198809229157	196
0	402	0.198813935697	197
0	404	0.198972277203	198
0	406	0.200104911345	199
0	410	0.200947994377	199
0	412	0.201262716038	200
0	414	0.202479224691	201
0	416	0.203807982565	202
0	418	0.204148329303	203
0	420	0.207423472481	204
0	422	0.207991376634	205
0	424	0.208277397607	206
0	426	0.209688422016	207
0	428	0.210546814984	208
0	430	0.211051158791	209
0	432	0.211947749662	210
0	434	0.214211483238	211
0	436	0.21506070405	212
0	438	0.21607936278	213
0	440	0.216331782773	214
0	442	0.218553289671	215
0	444	0.221605571328	216
0	446	0.222745179292	217
0	448	0.223337803319	218
0	450	0.223934182713	219
0	452	0.225807642593	220
0	454	0.229650649176	221
0	456	0.230852887743	222
0	458	0.23097641439	223
0	460	0.231329434523	224
0	462	0.232786253082	225
0	464	0.234467175287	226
0	466	0.234997897784	227
0	468	0.235502916532	228
0	470	0.236628198549	229
0	472	0.238757697945	230
0	474	0.239045108421	231
0	476	0.239915644247	232
0	478	0.240291383089	233
0	480	0.242426213539	234
0	482	0.245790583992	235
0	484	0.246969966926	236
0	486	0.247857828336	237
0	488	0.249149737605	238
0	490	0.250227572489	239
0	492	0.25092337195	240
0	494	0.251685239721	241
0	496	0.254810708079	242
0	498	0.255072765321	243
0	500	0.256105562332	244
0	502	0.25660787313	245
0	504	0.25715926912	246
0	506	0.258123722685	247
0	508	0.259056125565	248
0	510	0.259700230273	249
0	512	0.259719610054	250
0	514	0.26035473777	251
0	516	0.260713664986	252
0	518	0.261972708503	253
0	520	0.263052028702	254
0	522	0.263391693435	255
0	524	0.26373429306	256
0	526	0.264217928747	257
0	528	0.265180303803	258
0	530	0.26656328301	259
0	532	0.26712324408	260
0	534	0.269230691685	261
0	536	0.269376265663	262
0	538	0.269484812761	263
0	540	0.269839036893	264
0	542	0.269935959648	265
0	544	0.270779848121	266
0	546	0.271216876135	267
0	548	0.272110605213	268
0	550	0.272913157199	269
0	552	0.273767236935	270
0	554	0.273801440353	271
0	556	0.274860449738	272
0	558	0.278332985217	273
0	560	0.279388834826	274
0	562	0.279775964918	275
0	564	0.280340575419	276
0	566	0.280590656914	277
0	568	0.282859290907	278
0	570	0.283011584532	279
0	572	0.283469757416	280
0	574	0.283572078031	281
0	576	0.284144539582	282
0	578	0.288282349343	283
0	580	0.290507264	284
0	582	0.290808829913	285
0	584	0.292449727491	286
0	586	0.293219804351	287
0	588	0.294436823846	288
0	590	0.295030897344	289
0	592	0.295136509988	290
0	594	0.295241391824	291
0	596	0.297760673954	292
0	598	0.29819501961	293
0	600	0.299447627135	294
0	602	0.300081089753	295
0	609	0.306846480273	295
0	611	0.308686213058	296
0	613	0.308848083145	297
0	615	0.311198260435	298
0	617	0.313224169252	299
0	619	0.313262452165	300
0	621	0.31343977774	301
0	623	0.314149695667	302
0	625	0.315105662091	303
0	627	0.315288200693	304
0	629	0.315420384403	305
0	631	0.316930207859	306
0	633	0.318814136746	307
0	635	0.320816123242	308
0	637	0.322462842343	309
0	639	0.322992845221	310
0	641	0.323834726183	311
0	643	0.323985517193	312
0	645	0.324508387223	313
0	647	0.324542174009	314
0	649	0.324613849393	315
0	651	0.328663696232	316
0	653	0.329859134798	317
0	655	0.330326407364	318
0	657	0.330930706436	319
0	659	0.331475563564	320
0	661	0.332755897768	321
0	663	0.33280781032	322
0	665	0.334820583056	323
0	667	0.335275494901	324
0	669	0.338985455493	325
0	671	0.339002223259	326
0	673	0.340938800496	327
0	675	0.341201129805	328
0	677	0.341212913037	329
0	679	0.342660707119	330
0	681	0.34310695994	331
0	683	0.345991571692	332
0	685	0.347300870056	333
0	687	0.348687161408	334
0	689	0.348875456383	335
0	691	0.349290068926	336
0	693	0.350026200026	337
0	695	0.350698660543	338
0	697	0.350754530596	339
0	699	0.351168509519	340
0	701	0.351391648727	341
0	703	0.351589478234	342
0	705	0.351608173704	343
0	707	0.351795692655	344
0	709	0.353374105377	345
0	711	0.353996702721	346
0	713	0.354250208426	347
0	715	0.356326239486	348
0	717	0.356749896587	349
0	719	0.359634440875	350
0	721	0.362266659738	351
0	723	0.363203798456	352
0	725	0.364422595259	353
0	727	0.365330559286	354
0	729	0.365362916091	355
0	731	0.366893747317	356
0	733	0.367073704659	357
0	735	0.367766904429	358
0	737	0.368738386587	359
0	739	0.368790069493	360
0	741	0.36965099313	361
0	743	0.370851964037	362
0	745	0.371123632107	363
0	747	0.376002764995	364
0	749	0.378724113251	365
0	751	0.379035081056	366
0	753	0.379986910764	367
0	755	0.381123507259	368
0	757	0.381890586914	369
0	759	0.383887758881	370
0	761	0.384779137458	371
0	763	0.386168814522	372
0	765	0.387478599893	373
0	767	0.390816534227	374
0	769	0.391190420723	375
0	771	0.391998400776	376
0	773	0.392506265899	377
0	775	0.392745018772	378
0	777	0.392980543345	379
0	779	0.393232141958	380
0	781	0.393438174006	381
0	783	0.393685033275	382
0	785	0.396574108867	383
0	787	0.397417087642	384
0	789	0.398762435075	385
0	791	0.399364114062	386
0	793	0.400038358632	387
0	797	0.403552837313	387
0	799	0.403810850077	388
0	801	0.40495198798	389
0	803	0.405245495632	390
0	805	0.405334649922	391
0	807	0.405394430885	392
0	809	0.405452503247	393
0	811	0.406022400812	394
0	813	0.406691514536	395
0	815	0.40706518433	396
0	817	0.409193854425	397
0	819	0.410385712529	398
0	821	0.414132407143	399
0	823	0.414606823433	400
0	825	0.415568263005	401
0	827	0.41576623074	402
0	829	0.416548206461	403
0	831	0.416573194814	404
0	833	0.418501554951	405
0	835	0.418571172622	406
0	837	0.419933104346	407
0	839	0.421070642852	408
0	841	0.421721873584	409
0	843	0.422326454802	410
0	845	0.423456810348	411
0	847	0.424225930149	412
0	849	0.425159990482	413
0	851	0.427429830498	414
0	853	0.428684033768	415
0	855	0.433323686294	416
0	857	0.433957616313	417
0	859	0.434202107335	418
0	861	0.434810940249	419
0	863	0.435898844683	420
0	865	0.438267762854	421
0	867	0.438573367756	422
0	869	0.438720963789	423
0	871	0.438741831008	424
0	873	0.43900218242	425
0	875	0.440422565876	426
0	877	0.442556129163	427
0	879	0.442941816857	428
0	881	0.445289660618	429
0	883	0.445773299005	430
0	885	0.44681114908	431
0	887	0.447698651008	432
0	889	0.448091224036	433
0	891	0.449869367373	434
0	893	0.450602735046	435
0	895	0.451594239339	436
0	897	0.451594294691	437
0	899	0.453655115932	438
0	901	0.454028879226	439
0	903	0.454348453881	440
0	905	0.45490262471	441
0	907	0.456502344152	442
0	909	0.458668107833	443
0	911	0.458873455602	444
0	913	0.460012513253	445
0	915	0.463065697923	446
0	917	0.463674742536	447
0	919	0.464837855819	448
0	921	0.465498358899	449
0	923	0.465741077393	450
0	925	0.467295740331	451
0	927	0.470240220608	452
0	929	0.470500860737	453
0	931	0.47181336873	454
0	933	0.473936115384	455
0	935	0.474229066842	456
0	937	0.474605496194	457
0	939	0.474845419713	458
0	941	0.478002515254	459
0	943	0.478732742919	460
0	945	0.479370931525	461
0	947	0.47939692927	462
0	949	0.480640280048	463
0	951	0.480872805066	464
0	953	0.481039679707	465
0	955	0.481592518078	466
0	957	0.482903490446	467
0	959	0.483372166922	468
0	961	0.484411372559	469
0	963	0.485034201869	470
0	965	0.485276121514	471
0	967	0.485601337532	472
0	969	0.485807695526	473
0	971	0.486691481182	474
0	973	0.488339557355	475
0	975	0.490333596556	476
0	977	0.49170827651	477
0	979	0.4918333091	478
0	981	0.4929567696	479
0	983	0.493685293443	480
0	985	0.494009492556	481
0	987	0.494151134591	482
0	989	0.494343396032	483
0	991	0.495605208705	484
0	993	0.49682420805	485
0	995	0.497328487983	486
0	997	0.497950524902	487
0	999	0.498783903143	488
0	1001	0.500619166546	489
0	1004	0.50082162531	489
0	1011	0.501050869635	490
0	1013	0.501207345405	491
0	1015	0.501387619705	492
0	1017	0.502057160296	493
0	1019	0.502190500919	494
0	1021	0.502629956309	495
0	1023	0.503910380663	496
0	1025	0.506731016611	497
0	1027	0.506761942903	498
0	1029	0.508211497679	499
0	1031	0.509585840693	500
0	1033	0.510966803789	501
0	1035	0.511063971467	502
0	1037	0.513404463428	503
0	1039	0.513649661521	504
0	1041	0.513736770104	505
0	1043	0.51512008657	506
0	1045	0.515923478333	507
0	1047	0.517239104591	508
0	1049	0.51811731967	509
0	1051	0.518164007414	510
0	1053	0.521432503815	511
0	1055	0.521667159664	512
0	1057	0.522012679248	513
0	1059	0.522350833963	514
0	1061	0.5226263619	515
0	1063	0.523757280379	516
0	1065	0.523862967553	517
0	1067	0.523928080418	518
0	1069	0.523944646512	519
0	1071	0.524755787534	520
0	1073	0.52740834605	521
0	1075	0.527417629074	522
0	1077	0.528526038828	523
0	1079	0.530316028432	524
0	1081	0.531853857146	525
0	1083	0.536009828242	526
0	1085	0.536340738123	527
0	1087	0.537556428596	528
0	1089	0.538439309141	529
0	1091	0.538639751336	530
0	1093	0.538705843347	531
0	1095	0.539424089827	532
0	1097	0.540088897577	533
0	1099	0.540957463308	534
0	1101	0.544751487091	535
0	1103	0.54630049877	536
0	1105	0.548392055343	537
0	1107	0.549324667198	538
0	1109	0.549737397065	539
0	1111	0.549983812887	540
0	1113	0.553242733864	541
0	1115	0.553850013153	542
0	1117	0.554113590266	543
0	1119	0.55622447904	544
0	1121	0.559206679715	545
0	1123	0.559884481717	546
0	1125	0.56272112191	547
0	1127	0.563978358906	548
0	1129	0.565583817669	549
0	1131	0.566249660156	550
0	1133	0.567245123799	551
0	1135	0.568478004262	552
0	1137	0.570551765725	553
0	1139	0.571241200263	554
0	1141	0.571587953567	555
0	1143	0.57344938521	556
0	1145	0.575339486908	557
0	1147	0.575555583125	558
0	1149	0.576517595052	559
0	1151	0.578001837535	560
0	1153	0.57801516278	561
0	1155	0.581674820111	562
0	1157	0.582101355923	563
0	1159	0.584084104828	564
0	1161	0.584244438922	565
0	1163	0.585760507852	566
0	1165	0.589768457507	567
0	1167	0.593970316933	568
0	1169	0.594621114275	569
0	1171	0.596021789972	570
0	1173	0.59670973345	571
0	1175	0.596713789771	572
0	1177	0.597733976859	573
0	1179	0.598047974757	574
0	1181	0.598507766075	575
0	1183	0.599036233303	576
0	1185	0.59918345834	577
0	1187	0.59974246601	578
0	1191	0.60146909939	578
0	1193	0.601822695965	579
0	1195	0.602033229253	580
0	1197	0.602545943896	581
0	1199	0.603261989214	582
0	1201	0.603390569451	583
0	1203	0.603644580829	584
0	1205	0.607592214097	585
0	1207	0.607695182461	586
0	1209	0.608216261282	587
0	1211	0.610198151623	588
0	1213	0.611040287926	589
0	1215	0.614649228931	590
0	1217	0.615070222229	591
0	1219	0.618310185196	592
0	1221	0.619865479556	593
0	1223	0.622235867137	594
0	1225	0.622765828716	595
0	1227	0.62425325847	596
0	1229	0.624698407809	597
0	1231	0.625103590691	598
0	1233	0.625613581525	599
0	1235	0.625698161017	600
0	1237	0.626057454922	601
0	1239	0.626580422576	602
1	203	0.100895874505	1
1	408	0.200895874505	1
1	606	0.300895874505	1
1	795	0.400895874505	2
1	1009	0.500895874505	2
1	1189	0.600895874505	3
2	604	0.300895874505	1
2	1005	0.500895874505	1
3	1007	0.500895874505	0.5001

