file 352424 1746717928                                          
version 3
run General-0-20250508-12:17:38-5923
attr configname General
attr datetime 20250508-12:17:38
attr datetimef 20250508-121738
attr experiment General
attr inifile omnetpp.ini
attr iterationvars ""
attr iterationvarsd ""
attr iterationvarsf ""
attr measurement ""
attr network Network
attr processid 5923
attr repetition 0
attr replication #0
attr resultdir results
attr runnumber 0
attr seedset 0
config network Network
config sim-time-limit 200s
config Network.nodeTx.gen.generationInterval exponential(0.001)
config Network.nodeTx.gen.packetByteSize 12500
config Network.nodeTx.queue.bufferSize 2000000
config Network.queue.bufferSize 200
config Network.nodeRx.queue.bufferSize 200

vector 0 Network.nodeTx.queue bufferSize ETV
vector 1 Network.queue bufferSize ETV
vector 2 Network.nodeRx.queue bufferSize ETV
vector 3 Network.nodeRx.sink Delay ETV
0	860 274390 2 20541 0.000795874505 10.105767284847 10069 1 9967 50177698 333416451108
1	275250 2555 203 20535 0.100895874505 10.100895874505 101 1 50 2551 85851
2	277805 1226 604 20531 0.300895874505 10.100895874505 50 1 1 50 50
3	279031 1831 1007 20533 0.500895874505 10.100895874505 49 0.5001 10.044509126423 258.37959685714 1750.003147843
0	280862 145 20543 20551 10.105836128423 10.109312959252 5 9968 9972 49850 497004510
0	281007 29 20553 20553 10.110325278483 10.110325278483 1 9973 9973 9973 99460729
0	281036 202 20555 20567 10.110672138354 10.113946053019 7 9974 9980 69839 696783731
0	281238 29 20569 20569 10.114738085729 10.114738085729 1 9981 9981 9981 99620361
0	281267 29 20571 20571 10.115330632206 10.115330632206 1 9982 9982 9982 99640324
0	281296 29 20573 20573 10.115503699384 10.115503699384 1 9983 9983 9983 99660289
0	281325 29 20575 20575 10.116174697061 10.116174697061 1 9984 9984 9984 99680256
0	281354 28 20577 20577 10.11630141009 10.11630141009 1 9985 9985 9985 99700225
0	281382 4886 20579 20907 10.118682207682 10.300682988005 164 9986 10148 1650981 16620716189
1	286268 27 20729 20729 10.200895874505 10.200895874505 1 51 51 51 2601
2	286295 26 20909 20909 10.300895874505 10.300895874505 1 1 1 1 1
3	286321 40 20911 20911 10.300895874505 10.300895874505 1 10.243233898721 10.243233898721 10.243233898721 104.92384070391
0	286361 5737 20915 21300 10.303819903611 10.50083643005 192 10148 10337 1966645 20144812613
1	292098 54 20913 21087 10.300895874505 10.400895874505 2 51 52 103 5305
2	292152 26 21301 21301 10.500895874505 10.500895874505 1 1 1 1 1
3	292178 40 21303 21303 10.500895874505 10.500895874505 1 10.442212466847 10.442212466847 10.442212466847 109.03980120277
0	292218 5650 21307 21685 10.50183324455 10.699585849829 189 10338 10525 1971553 20566803611
1	297868 54 21305 21495 10.500895874505 10.600895874505 2 52 53 105 5513
2	297922 26 21687 21687 10.700895874505 10.700895874505 1 1 1 1 1
3	297948 40 21689 21689 10.700895874505 10.700895874505 1 10.641340145652 10.641340145652 10.641340145652 113.23812009546
0	297988 5623 21693 22069 10.700906001765 10.900726948844 188 10525 10711 1996176 21195856806
1	303611 54 21691 21865 10.700895874505 10.800895874505 2 53 54 107 5725
2	303665 26 22071 22071 10.900895874505 10.900895874505 1 1 1 1 1
3	303691 40 22073 22073 10.900895874505 10.900895874505 1 10.841185415971 10.841185415971 10.841185415971 117.53130122346
0	303731 5682 22077 22457 10.901731338713 11.100042676925 190 10711 10899 2052944 22182557716
1	309413 54 22075 22257 10.900895874505 11.000895874505 2 54 55 109 5941
2	309467 26 22459 22459 11.100895874505 11.100895874505 1 1 1 1 1
3	309493 40 22461 22461 11.100895874505 11.100895874505 1 11.040414581313 11.040414581313 11.040414581313 121.89075412727
0	309533 5948 22465 22863 11.101176281121 11.300635620324 199 10899 11096 2188504 24068736088
1	315481 54 22463 22667 11.100895874505 11.200895874505 2 55 56 111 6161
2	315535 26 22865 22865 11.300895874505 11.300895874505 1 1 1 1 1
3	315561 40 22867 22867 11.300895874505 11.300895874505 1 11.237520160835 11.237520160835 11.237520160835 126.28185936517
0	315601 5408 22871 23233 11.300926501027 11.500451048216 181 11096 11275 2024572 22646296954
1	321009 54 22869 23045 11.300895874505 11.400895874505 2 56 57 113 6385
2	321063 26 23235 23235 11.500895874505 11.500895874505 1 1 1 1 1
3	321089 40 23237 23237 11.500895874505 11.500895874505 1 11.436098796155 11.436098796155 11.436098796155 130.78435567542
0	321129 5748 23241 23625 11.502941192174 11.700686349252 192 11275 11465 2183046 24821881916
1	326877 54 23239 23445 11.500895874505 11.600895874505 2 57 58 115 6613
2	326931 26 23627 23627 11.700895874505 11.700895874505 1 1 1 1 1
3	326957 40 23629 23629 11.700895874505 11.700895874505 1 11.635360968863 11.635360968863 11.635360968863 135.38162487574
0	326997 6311 23633 24055 11.701520670931 11.900148311717 211 11465 11674 2441162 28243766574
1	333308 54 23631 23839 11.700895874505 11.800895874505 2 58 59 117 6845
2	333362 26 24057 24057 11.900895874505 11.900895874505 1 1 1 1 1
3	333388 40 24059 24059 11.900895874505 11.900895874505 1 11.835249022702 11.835249022702 11.835249022702 140.07311942937
0	333428 6494 24063 24498 11.901192483101 12.100880679946 217 11674 11888 2556582 30121169180
1	339922 54 24061 24275 11.900895874505 12.000895874505 2 59 60 119 7081
2	339976 26 24499 24499 12.100895874505 12.100895874505 1 1 1 1 1
3	340002 40 24501 24501 12.100895874505 12.100895874505 1 12.034713456982 12.034713456982 12.034713456982 144.83432799166
0	340042 5658 24505 24884 12.101052035281 12.30081090602 189 11889 12075 2264679 27136908031
1	345700 54 24503 24671 12.100895874505 12.200895874505 2 60 61 121 7321
2	345754 26 24885 24885 12.300895874505 12.300895874505 1 1 1 1 1
3	345780 39 24887 24887 12.300895874505 12.300895874505 1 12.23407176228 12.23407176228 12.23407176228 149.67251188462
0	345819 6218 24891 25308 12.301771042766 12.50085310678 208 12076 12281 2533233 30852995813
1	352037 54 24889 25103 12.300895874505 12.400895874505 2 61 62 123 7565
2	352091 26 25309 25309 12.500895874505 12.500895874505 1 1 1 1 1
3	352117 40 25311 25311 12.500895874505 12.500895874505 1 12.433764481928 12.433764481928 12.433764481928 154.59849919205
1	352157 27 25313 25313 12.500895874505 12.500895874505 1 62 62 62 3844
0	352184 239 25315 25329 12.501621457975 12.50668042381 8 12282 12289 98284 1207468124

