version 3
run General-0-20250526-17:11:21-51269
attr configname General
attr datetime 20250526-17:11:21
attr datetimef 20250526-171121
attr experiment General
attr inifile omnetpp.ini
attr iterationvars ""
attr iterationvarsd ""
attr iterationvarsf ""
attr measurement ""
attr network Network
attr processid 51269
attr repetition 0
attr replication #0
attr resultdir results
attr runnumber 0
attr seedset 0
config network Network
config sim-time-limit 200s
config Network.node[0].app.interArrivalTime exponential(1)
config Network.node[0].app.packetByteSize 125000
config Network.node[0].app.destination 5
config Network.node[2].app.interArrivalTime exponential(1)
config Network.node[2].app.packetByteSize 125000
config Network.node[2].app.destination 5

vector 0 Network.node[0].net charge ETV
vector 1 Network.node[0].lnk[0] "Buffer Size" ETV
vector 2 Network.node[2].net charge ETV
vector 3 Network.node[2].lnk[0] "Buffer Size" ETV
vector 4 Network.node[7].net charge ETV
vector 5 Network.node[7].lnk[0] "Buffer Size" ETV
vector 6 Network.node[1].net charge ETV
vector 7 Network.node[1].lnk[0] "Buffer Size" ETV
vector 8 Network.node[6].net charge ETV
vector 9 Network.node[6].lnk[0] "Buffer Size" ETV
vector 10 Network.node[5].net charge ETV
vector 11 Network.node[5].app Delay ETV
0	2	0.898560388484	1
0	6	1.821783519955	1
0	36	3.773328855839	1
0	46	3.859804212075	1
0	58	4.324377342509	1
0	71	4.859804212075	1
0	78	5.301383768902	1
0	100	5.786511932624	1
0	106	6.139671071762	1
0	109	6.198055740855	1
0	113	6.52596940626	1
1	3	0.898560388484	1
1	4	0.898560388484	0
1	7	1.821783519955	1
1	12	1.898560388484	0
1	37	3.773328855839	1
1	38	3.773328855839	0
1	47	3.859804212075	1
1	59	4.324377342509	2
1	64	4.773328855839	1
1	72	4.859804212075	2
1	79	5.301383768902	3
1	89	5.773328855839	2
1	101	5.786511932624	3
1	107	6.139671071762	4
1	110	6.198055740855	5
1	114	6.52596940626	6
1	120	6.773328855839	5
2	9	1.859604212075	1
2	18	2.646805352057	1
2	61	4.52576940626	1
2	86	5.563928706924	1
2	103	6.139447903807	1
3	10	1.859604212075	1
3	11	1.859604212075	0
3	19	2.646805352057	1
3	20	2.859604212075	0
3	62	4.52576940626	1
3	63	4.52576940626	0
3	87	5.563928706924	1
3	88	5.563928706924	0
3	104	6.139447903807	1
3	115	6.563928706924	0
4	14	1.898660388484	1
4	28	2.898660388484	1
4	66	4.773428855839	1
4	92	5.773428855839	1
5	15	1.898660388484	1
5	16	1.898660388484	0
5	29	2.898660388484	1
5	30	2.898660388484	0
5	67	4.773428855839	1
5	68	4.773428855839	0
5	93	5.773428855839	1
5	94	5.773428855839	0
6	22	2.859704212075	1
6	42	3.859704212075	1
6	82	5.52586940626	1
6	117	6.564028706924	1
7	23	2.859704212075	1
7	24	2.859704212075	0
7	43	3.859704212075	1
7	44	3.859704212075	0
7	83	5.52586940626	1
7	84	5.52586940626	0
7	118	6.564028706924	1
7	119	6.564028706924	0
8	32	2.898760388484	1
8	51	3.898760388484	1
8	96	5.773528855839	1
9	33	2.898760388484	1
9	34	2.898760388484	0
9	52	3.898760388484	1
9	53	3.898760388484	0
9	97	5.773528855839	1
9	98	5.773528855839	0
10	55	3.898860388484	1
10	75	4.898860388484	1
11	56	3.898860388484	3.0003
11	76	4.898860388484	3.077076868529
0	141	7.564128706924	1
0	163	8.564128706924	1
0	191	9.512968020783	1
1	142	7.564128706924	6
1	143	7.773328855839	5
1	164	8.564128706924	6
1	168	8.773328855839	5
2	158	8.362972325843	1
2	166	8.681328466685	1
2	183	9.164930571633	1
3	159	8.362972325843	1
3	160	8.362972325843	0
3	167	8.681328466685	1
3	184	9.164930571633	2
3	185	9.362972325843	1
4	123	6.773428855839	1
4	146	7.773428855839	1
4	171	8.773428855839	1
5	124	6.773428855839	1
5	125	6.773428855839	0
5	147	7.773428855839	1
5	148	7.773428855839	0
5	172	8.773428855839	1
5	173	8.773428855839	0
6	137	7.564028706924	1
6	187	9.363072325843	1
7	138	7.564028706924	1
7	139	7.564028706924	0
7	188	9.363072325843	1
7	189	9.363072325843	0
8	128	6.773528855839	1
8	151	7.773528855839	1
8	176	8.773528855839	1
9	129	6.773528855839	1
9	130	6.773528855839	0
9	152	7.773528855839	1
9	153	7.773528855839	0
9	177	8.773528855839	1
9	178	8.773528855839	0
10	132	6.773628855839	1
10	155	7.773628855839	1
10	180	8.773628855839	1
11	133	6.773628855839	3.0003
11	156	7.773628855839	5.914024643764
11	181	8.773628855839	4.44925151333
0	217	10.363172325843	1
0	234	11.081864138406	1
0	243	11.363172325843	1
0	263	11.834538251719	1
0	275	12.363172325843	1
0	281	12.673971104619	1
1	192	9.512968020783	6
1	193	9.773328855839	5
1	218	10.363172325843	6
1	219	10.773328855839	5
1	235	11.081864138406	6
1	244	11.363172325843	7
1	248	11.773328855839	6
1	264	11.834538251719	7
1	276	12.363172325843	8
1	282	12.673971104619	9
1	283	12.773328855839	8
2	208	9.814376919884	1
2	246	11.486588120209	1
2	266	12.14047068743	1
2	278	12.639342696446	1
3	209	9.814376919884	2
3	210	10.362972325843	1
3	236	11.362972325843	0
3	247	11.486588120209	1
3	267	12.14047068743	2
3	268	12.362972325843	1
3	279	12.639342696446	2
4	196	9.773428855839	1
4	222	10.773428855839	1
4	251	11.773428855839	1
4	286	12.773428855839	1
5	197	9.773428855839	1
5	198	9.773428855839	0
5	223	10.773428855839	1
5	224	10.773428855839	0
5	252	11.773428855839	1
5	253	11.773428855839	0
5	287	12.773428855839	1
5	288	12.773428855839	0
6	213	10.363072325843	1
6	239	11.363072325843	1
6	271	12.363072325843	1
7	214	10.363072325843	1
7	215	10.363072325843	0
7	240	11.363072325843	1
7	241	11.363072325843	0
7	272	12.363072325843	1
7	273	12.363072325843	0
8	201	9.773528855839	1
8	227	10.773528855839	1
8	256	11.773528855839	1
8	291	12.773528855839	1
9	202	9.773528855839	1
9	203	9.773528855839	0
9	228	10.773528855839	1
9	229	10.773528855839	0
9	257	11.773528855839	1
9	258	11.773528855839	0
9	292	12.773528855839	1
9	293	12.773528855839	0
10	205	9.773628855839	1
10	231	10.773628855839	1
10	260	11.773628855839	1
11	206	9.773628855839	7.126823503782
11	232	10.773628855839	5.472245086937
11	261	11.773628855839	5.987116923215
0	304	13.363172325843	1
1	305	13.363172325843	9
1	306	13.773328855839	8
3	297	13.362972325843	1
3	320	14.362972325843	0
4	309	13.773428855839	1
5	310	13.773428855839	1
5	311	13.773428855839	0
6	300	13.363072325843	1
7	301	13.363072325843	1
7	302	13.363072325843	0
8	314	13.773528855839	1
9	315	13.773528855839	1
9	316	13.773528855839	0
10	295	12.773628855839	1
10	318	13.773628855839	1
11	296	12.773628855839	6.633957784077
11	319	13.773628855839	7.575573114984
0	327	14.363172325843	1
0	330	14.482340368894	1
0	333	14.556025724359	1
0	350	14.967603720602	1
0	353	15.058764746726	1
0	368	15.363172325843	1
0	388	16.103377255034	1
0	397	16.363172325843	1
0	420	17.363172325843	1
0	446	18.363172325843	1
0	469	19.25354718371	1
0	478	19.363172325843	1
0	501	20.363172325843	1
0	521	21.294439399622	1
0	530	21.363172325843	1
0	547	21.9361485723	1
0	556	22.363172325843	1
0	574	23.363172325843	1
0	577	23.541388129362	1
0	612	25.155390204255	1
0	632	25.890354625445	1
0	654	27.026293567155	1
0	663	27.047509410774	1
0	666	27.152167976593	1
0	688	28.047509410774	1
0	700	28.427395678817	1
0	703	28.582125359317	1
0	724	29.182974844391	1
0	732	29.352960017784	1
0	755	30.20440671874	1
0	772	30.774324697878	1
0	776	31.20440671874	1
0	779	31.512151989634	1
0	782	31.624098150267	1
0	803	32.159663870495	1
0	806	32.466944222648	1
0	812	32.673147504678	1
0	854	33.971148391769	1
0	857	34.008437689302	1
0	867	34.617520112485	1
0	870	34.762798139777	1
0	887	34.781766708978	1
0	891	34.971148391769	1
0	899	35.173537519655	1
0	928	36.101097919552	1
0	931	36.134918458721	1
0	937	36.386360390796	1
0	954	36.874917440104	1
0	963	37.101097919552	1
0	989	38.101097919552	1
0	1012	39.101097919552	1
0	1018	39.752832461382	1
0	1041	40.101097919552	1
0	1044	40.3505785382	1
0	1064	40.796097033251	1
0	1073	41.101097919552	1
0	1076	41.370629439992	1
0	1102	42.101097919552	1
0	1134	43.101097919552	1
0	1137	43.696980501686	1
0	1160	44.101097919552	1
0	1177	44.795892969237	1
0	1186	45.101097919552	1
0	1203	45.854727100725	1
0	1212	46.101097919552	1
0	1239	46.965324546412	1
0	1243	47.101097919552	1
0	1246	47.10335323484	1
0	1274	48.492395924631	1
0	1283	48.540707172454	1
0	1303	48.944497984856	1
0	1318	49.540707172454	1
0	1338	49.788925778384	1
0	1347	50.540707172454	1
0	1373	51.540707172454	1
0	1396	52.540707172454	1
0	1419	53.540707172454	1
0	1442	54.24342262456	1
0	1445	54.477724143336	1
0	1454	54.540707172454	1
0	1477	55.485743388756	1
0	1486	55.540707172454	1
0	1509	56.540707172454	1
0	1512	56.54448610385	1
0	1529	57.416401957476	1
0	1538	57.540707172454	1
0	1541	57.708482490743	1
0	1558	58.243547167826	1
0	1567	58.540707172454	1
0	1584	58.871488748817	1
0	1587	59.51526975042	1
0	1596	59.540707172454	1
0	1613	59.795546758899	1
0	1622	60.540707172454	1
0	1629	60.77241083297	1
0	1652	61.184912062892	1
0	1656	61.540707172454	1
0	1681	62.252984260042	1
0	1684	62.401696529294	1
0	1696	62.632680586152	1
0	1722	63.632680586152	1
0	1739	63.908331862567	1
0	1742	64.368345820307	1
0	1751	64.632680586152	1
0	1768	65.454615201185	1
0	1777	65.632680586152	1
0	1809	66.632680586152	1
0	1829	67.174946858902	1
0	1838	67.632680586152	1
0	1855	68.294761224656	1
0	1858	68.395795999965	1
0	1870	68.632680586152	1
0	1893	69.632680586152	1
0	1916	70.632680586152	1
0	1939	71.632680586152	1
0	1956	71.969384372309	1
0	1964	72.632680586152	1
0	2006	74.074705673101	1
0	2009	74.132032599525	1
0	2018	74.293319858336	1
0	2035	75.060511096426	1
0	2044	75.293319858336	1
0	2047	75.660457983067	1
0	2065	76.293319858336	1
0	2082	77.004703255219	1
0	2085	77.024893383365	1
0	2088	77.064869682423	1
0	2095	77.64774807129	1
0	2152	79.400167332569	1
0	2178	80.400167332569	1
0	2207	81.400167332569	1
0	2210	81.539318194135	1
0	2227	82.074202569892	1
0	2236	82.400167332569	1
0	2265	83.400167332569	1
0	2291	84.400167332569	1
0	2294	84.578114352977	1
0	2320	85.400167332569	1
0	2323	85.410957869043	1
0	2352	86.400167332569	1
0	2381	87.400167332569	1
0	2384	87.41419839155	1
0	2387	87.512848699968	1
0	2410	88.400167332569	1
0	2433	89.400167332569	1
0	2453	90.053153207927	1
0	2456	90.139923690267	1
0	2465	90.400167332569	1
0	2500	91.400167332569	1
0	2526	92.400167332569	1
0	2543	92.789179618943	1
0	2546	92.930510332504	1
0	2555	93.400167332569	1
0	2572	93.972290986683	1
0	2584	94.400167332569	1
0	2601	95.232224796792	1
0	2610	95.400167332569	1
0	2613	95.573878963818	1
0	2630	95.88139668758	1
0	2636	96.083747126147	1
0	2645	96.400167332569	1
0	2665	96.966876168106	1
0	2668	96.987188626902	1
0	2671	97.167440878887	1
0	2683	97.400167332569	1
0	2715	98.400167332569	1
0	2732	98.9331819513	1
0	2744	99.400167332569	1
0	2764	99.776264983448	1
0	2773	100.400167332569	1
0	2796	101.105022857198	1
0	2805	101.400167332569	1
0	2808	101.672927010678	1
0	2825	101.958947983186	1
0	2834	102.400167332569	1
0	2851	103.36997239248	1
0	2860	103.400167332569	1
0	2877	104.228365360309	1
0	2889	104.400167332569	1
0	2892	104.732709166897	1
0	2918	105.400167332569	1
0	2944	106.400167332569	1
0	2961	106.996442742758	1
0	2967	107.248862735649	1
0	2976	107.400167332569	1
0	2999	108.400167332569	1
0	3025	109.400167332569	1
0	3042	110.301144392533	1
0	3054	110.400167332569	1
0	3071	110.893768419985	1
0	3083	111.400167332569	1
0	3106	112.400167332569	1
0	3109	112.767228299842	1
0	3132	113.400167332569	1
0	3149	113.969466867089	1
0	3152	114.092993514451	1
0	3161	114.400167332569	1
0	3164	114.446013647725	1
0	3190	115.400167332569	1
0	3207	115.902832206289	1
0	3216	116.400167332569	1
0	3219	116.433554702906	1
0	3239	116.938573450661	1
0	3248	117.400167332569	1
0	3277	118.400167332569	1
0	3297	119.068072846729	1
0	3309	119.400167332569	1
0	3332	120.400167332569	1
0	3349	121.202903296712	1
0	3358	121.400167332569	1
0	3375	122.382286230357	1
0	3384	122.400167332569	1
0	3404	123.270147640794	1
0	3413	123.400167332569	1
0	3433	124.34798252493	1
0	3442	124.400167332569	1
0	3462	125.109850296226	1
0	3465	125.371907537901	1
0	3474	125.400167332569	1
0	3497	126.400167332569	1
0	3500	126.404704548546	1
0	3517	126.907015346807	1
0	3526	127.400167332569	1
0	3529	127.458411336941	1
0	3551	128.400167332569	1
0	3554	128.422864902435	1
0	3582	129.066969610758	1
0	3588	129.425896826628	1
0	3597	129.649252527223	1
0	3617	130.505217025284	1
0	3626	130.649252527223	1
0	3646	130.847816649982	1
0	3658	131.649252527223	1
0	3675	131.810191705753	1
0	3678	132.370152775827	1
0	3687	132.649252527223	1
0	3725	133.649252527223	1
0	3745	134.477600380777	1
0	3754	134.649252527223	1
0	3774	135.371329459083	1
0	3789	135.649252527223	1
0	3806	136.225409194726	1
0	3818	136.649252527223	1
0	3844	137.649252527223	1
0	3873	138.649252527223	1
0	3899	139.649252527223	1
0	3902	139.697944674008	1
0	3919	139.850238299262	1
0	3922	140.30841118322	1
0	3925	140.410731798073	1
0	3934	140.649252527223	1
0	3951	140.983193349501	1
0	3963	141.649252527223	1
0	3986	142.649252527223	1
0	4015	143.649252527223	1
0	4038	144.649252527223	1
0	4055	145.121003110011	1
0	4067	145.649252527223	1
0	4084	145.891079969557	1
0	4087	146.485153467881	1
0	4093	146.59076611151	1
0	4105	146.649252527223	1
0	4131	147.649252527223	1
0	4157	148.649252527223	1
0	4177	149.110048241593	1
0	4186	149.649252527223	1
0	4209	150.649252527223	1
0	4226	150.94978102667	1
0	4229	151.111651113382	1
0	4238	151.649252527223	1
0	4261	152.649252527223	1
0	4278	153.461828403133	1
0	4287	153.649252527223	1
0	4310	154.649252527223	1
0	4327	155.487737220236	1
0	4330	155.526020133121	1
0	4339	155.649252527223	1
0	4345	155.703345708266	1
0	4374	156.649252527223	1
0	4377	156.659312132188	1
0	4403	157.649252527223	1
0	4420	158.169135587797	1
0	4432	158.649252527223	1
0	4455	159.649252527223	1
0	4472	160.171122083323	1
0	4484	160.649252527223	1
0	4487	160.70112496146	1
0	4504	160.851915971654	1
0	4516	161.374786001742	1
0	4525	161.649252527223	1
0	4542	162.570224568024	1
0	4551	162.649252527223	1
0	4568	163.037497134434	1
0	4571	163.641796206282	1
0	4580	163.649252527223	1
0	4597	164.186653334427	1
0	4606	164.649252527223	1
0	4629	165.466987538239	1
0	4638	165.649252527223	1
0	4655	165.921899383031	1
0	4664	166.649252527223	1
0	4693	167.649252527223	1
0	4716	168.649252527223	1
0	4742	169.631859974935	1
0	4751	169.649252527223	1
0	4768	170.078112795454	1
0	4777	170.649252527223	1
0	4803	171.649252527223	1
0	4829	172.649252527223	1
0	4846	172.962724547556	1
0	4849	173.151019522775	1
0	4852	173.565632065434	1
0	4861	173.649252527223	1
0	4881	174.301763165421	1
0	4887	174.35763321831	1
0	4890	174.580772426411	1
0	4899	174.649252527223	1
0	4922	174.77860193387	1
0	4937	175.649252527223	1
0	4957	176.357014655976	1
0	4966	176.649252527223	1
0	4983	176.780671757333	1
0	4992	177.649252527223	1
0	5018	178.649252527223	1
0	5041	179.649252527223	1
0	5044	179.66521604574	1
0	5064	180.602354763463	1
0	5073	180.649252527223	1
0	5090	181.510318790788	1
0	5093	181.542675595433	1
0	5102	181.649252527223	1
0	5134	182.649252527223	1
0	5151	183.0735068217	1
0	5154	183.125189727495	1
0	5166	183.649252527223	1
0	5183	183.986113364176	1
0	5186	184.257781434518	1
0	5195	184.649252527223	1
0	5221	185.649252527223	1
0	5244	186.649252527223	1
0	5270	187.649252527223	1
0	5296	188.649252527223	1
0	5316	189.136914322512	1
0	5325	189.649252527223	1
0	5342	189.903993977084	1
0	5354	190.649252527223	1
0	5380	191.649252527223	1
0	5397	191.901165944574	1
0	5409	192.649252527223	1
0	5426	193.210951315936	1
0	5429	193.584837811839	1
0	5438	193.649252527223	1
0	5455	194.392817865238	1
0	5464	194.649252527223	1
0	5481	194.900682987925	1
0	5484	195.139435860773	1
0	5487	195.374960434192	1
0	5493	195.626559047305	1
0	5502	195.649252527223	1
0	5522	195.873418316104	1
0	5531	196.649252527223	1
0	5534	196.716397091518	1
0	5557	197.649252527223	1
0	5574	198.061744524752	1
0	5582	198.649252527223	1
0	5585	198.663423511276	1
1	328	14.363172325843	9
1	331	14.482340368894	10
1	334	14.556025724359	11
1	335	14.773328855839	10
1	351	14.967603720602	11
1	354	15.058764746726	12
1	369	15.363172325843	13
1	373	15.773328855839	12
1	389	16.103377255034	13
1	398	16.363172325843	14
1	399	16.773328855839	13
1	421	17.363172325843	14
1	425	17.773328855839	13
1	447	18.363172325843	14
1	448	18.773328855839	13
1	470	19.25354718371	14
1	479	19.363172325843	15
1	480	19.773328855839	14
1	502	20.363172325843	15
1	503	20.773328855839	14
1	522	21.294439399622	15
1	531	21.363172325843	16
1	532	21.773328855839	15
1	548	21.9361485723	16
1	557	22.363172325843	17
1	558	22.773328855839	16
1	575	23.363172325843	17
1	578	23.541388129362	18
1	579	23.773328855839	17
1	593	24.773328855839	16
1	613	25.155390204255	17
1	617	25.773328855839	16
1	633	25.890354625445	17
1	639	26.773328855839	16
1	655	27.026293567155	17
1	664	27.047509410774	18
1	667	27.152167976593	19
1	672	27.773328855839	18
1	689	28.047509410774	19
1	701	28.427395678817	20
1	704	28.582125359317	21
1	705	28.773328855839	20
1	725	29.182974844391	21
1	733	29.352960017784	22
1	734	29.773328855839	21
1	756	30.20440671874	22
1	757	30.773328855839	21
1	773	30.774324697878	22
1	777	31.20440671874	23
1	780	31.512151989634	24
1	783	31.624098150267	25
1	784	31.773328855839	24
1	804	32.159663870495	25
1	807	32.466944222648	26
1	813	32.673147504678	27
1	814	32.773328855839	26
1	833	33.773328855839	25
1	855	33.971148391769	26
1	858	34.008437689302	27
1	868	34.617520112485	28
1	871	34.762798139777	29
1	872	34.773328855839	28
1	888	34.781766708978	29
1	892	34.971148391769	30
1	900	35.173537519655	31
1	907	35.773328855839	30
1	929	36.101097919552	31
1	932	36.134918458721	32
1	938	36.386360390796	33
1	939	36.773328855839	32
1	955	36.874917440104	33
1	964	37.101097919552	34
1	968	37.773328855839	33
1	990	38.101097919552	34
1	991	38.773328855839	33
1	1013	39.101097919552	34
1	1019	39.752832461382	35
1	1020	39.773328855839	34
1	1042	40.101097919552	35
1	1045	40.3505785382	36
1	1049	40.773328855839	35
1	1065	40.796097033251	36
1	1074	41.101097919552	37
1	1077	41.370629439992	38
1	1081	41.773328855839	37
1	1103	42.101097919552	38
1	1104	42.773328855839	37
1	1135	43.101097919552	38
1	1138	43.696980501686	39
1	1139	43.773328855839	38
1	1161	44.101097919552	39
1	1162	44.773328855839	38
1	1178	44.795892969237	39
1	1187	45.101097919552	40
1	1188	45.773328855839	39
1	1204	45.854727100725	40
1	1213	46.101097919552	41
1	1221	46.773328855839	40
1	1240	46.965324546412	41
1	1244	47.101097919552	42
1	1247	47.10335323484	43
1	1256	47.773328855839	42
1	1275	48.492395924631	43
1	1284	48.540707172454	44
1	1288	48.773328855839	43
1	1304	48.944497984856	44
1	1319	49.540707172454	45
1	1323	49.773328855839	44
1	1339	49.788925778384	45
1	1348	50.540707172454	46
1	1352	50.773328855839	45
1	1374	51.540707172454	46
1	1375	51.773328855839	45
1	1397	52.540707172454	46
1	1398	52.773328855839	45
1	1420	53.540707172454	46
1	1421	53.773328855839	45
1	1443	54.24342262456	46
1	1446	54.477724143336	47
1	1455	54.540707172454	48
1	1456	54.773328855839	47
1	1478	55.485743388756	48
1	1487	55.540707172454	49
1	1488	55.773328855839	48
1	1510	56.540707172454	49
1	1513	56.54448610385	50
1	1514	56.773328855839	49
1	1530	57.416401957476	50
1	1539	57.540707172454	51
1	1542	57.708482490743	52
1	1543	57.773328855839	51
1	1559	58.243547167826	52
1	1568	58.540707172454	53
1	1569	58.773328855839	52
1	1585	58.871488748817	53
1	1588	59.51526975042	54
1	1597	59.540707172454	55
1	1598	59.773328855839	54
1	1614	59.795546758899	55
1	1623	60.540707172454	56
1	1630	60.77241083297	57
1	1631	60.773328855839	56
1	1653	61.184912062892	57
1	1657	61.540707172454	58
1	1663	61.773328855839	57
1	1682	62.252984260042	58
1	1685	62.401696529294	59
1	1697	62.632680586152	60
1	1701	62.773328855839	59
1	1723	63.632680586152	60
1	1724	63.773328855839	59
1	1740	63.908331862567	60
1	1743	64.368345820307	61
1	1752	64.632680586152	62
1	1753	64.773328855839	61
1	1769	65.454615201185	62
1	1778	65.632680586152	63
1	1788	65.773328855839	62
1	1810	66.632680586152	63
1	1814	66.773328855839	62
1	1830	67.174946858902	63
1	1839	67.632680586152	64
1	1840	67.773328855839	63
1	1856	68.294761224656	64
1	1859	68.395795999965	65
1	1871	68.632680586152	66
1	1872	68.773328855839	65
1	1894	69.632680586152	66
1	1895	69.773328855839	65
1	1917	70.632680586152	66
1	1918	70.773328855839	65
1	1940	71.632680586152	66
1	1941	71.773328855839	65
1	1957	71.969384372309	66
1	1965	72.632680586152	67
1	1966	72.773328855839	66
1	1991	73.773328855839	65
1	2007	74.074705673101	66
1	2010	74.132032599525	67
1	2019	74.293319858336	68
1	2020	74.773328855839	67
1	2036	75.060511096426	68
1	2045	75.293319858336	69
1	2048	75.660457983067	70
1	2049	75.773328855839	69
1	2066	76.293319858336	70
1	2067	76.773328855839	69
1	2083	77.004703255219	70
1	2086	77.024893383365	71
1	2089	77.064869682423	72
1	2096	77.64774807129	73
1	2100	77.773328855839	72
1	2128	78.773328855839	71
1	2153	79.400167332569	72
1	2157	79.773328855839	71
1	2179	80.400167332569	72
1	2183	80.773328855839	71
1	2208	81.400167332569	72
1	2211	81.539318194135	73
1	2212	81.773328855839	72
1	2228	82.074202569892	73
1	2237	82.400167332569	74
1	2238	82.773328855839	73
1	2266	83.400167332569	74
1	2270	83.773328855839	73
1	2292	84.400167332569	74
1	2295	84.578114352977	75
1	2299	84.773328855839	74
1	2321	85.400167332569	75
1	2324	85.410957869043	76
1	2331	85.773328855839	75
1	2353	86.400167332569	76
1	2357	86.773328855839	75
1	2382	87.400167332569	76
1	2385	87.41419839155	77
1	2388	87.512848699968	78
1	2389	87.773328855839	77
1	2411	88.400167332569	78
1	2412	88.773328855839	77
1	2434	89.400167332569	78
1	2438	89.773328855839	77
1	2454	90.053153207927	78
1	2457	90.139923690267	79
1	2466	90.400167332569	80
1	2470	90.773328855839	79
1	2501	91.400167332569	80
1	2502	91.773328855839	79
1	2527	92.400167332569	80
1	2528	92.773328855839	79
1	2544	92.789179618943	80
1	2547	92.930510332504	81
1	2556	93.400167332569	82
1	2557	93.773328855839	81
1	2573	93.972290986683	82
1	2585	94.400167332569	83
1	2586	94.773328855839	82
1	2602	95.232224796792	83
1	2611	95.400167332569	84
1	2614	95.573878963818	85
1	2615	95.773328855839	84
1	2631	95.88139668758	85
1	2637	96.083747126147	86
1	2646	96.400167332569	87
1	2650	96.773328855839	86
1	2666	96.966876168106	87
1	2669	96.987188626902	88
1	2672	97.167440878887	89
1	2684	97.400167332569	90
1	2685	97.773328855839	89
1	2716	98.400167332569	90
1	2717	98.773328855839	89
1	2733	98.9331819513	90
1	2745	99.400167332569	91
1	2749	99.773328855839	90
1	2765	99.776264983448	91
1	2774	100.400167332569	92
1	2778	100.773328855839	91
1	2797	101.105022857198	92
1	2806	101.400167332569	93
1	2809	101.672927010678	94
1	2810	101.773328855839	93
1	2826	101.958947983186	94
1	2835	102.400167332569	95
1	2836	102.773328855839	94
1	2852	103.36997239248	95
1	2861	103.400167332569	96
1	2862	103.773328855839	95
1	2878	104.228365360309	96
1	2890	104.400167332569	97
1	2893	104.732709166897	98
1	2894	104.773328855839	97
1	2919	105.400167332569	98
1	2920	105.773328855839	97
1	2945	106.400167332569	98
1	2946	106.773328855839	97
1	2962	106.996442742758	98
1	2968	107.248862735649	99
1	2977	107.400167332569	100
1	2978	107.773328855839	99
1	3000	108.400167332569	100
1	3001	108.773328855839	99
1	3026	109.400167332569	100
1	3027	109.773328855839	99
1	3043	110.301144392533	100
1	3055	110.400167332569	101
1	3056	110.773328855839	100
1	3072	110.893768419985	101
1	3084	111.400167332569	102
1	3085	111.773328855839	101
1	3107	112.400167332569	102
1	3110	112.767228299842	103
1	3111	112.773328855839	102
1	3133	113.400167332569	103
1	3134	113.773328855839	102
1	3150	113.969466867089	103
1	3153	114.092993514451	104
1	3162	114.400167332569	105
1	3165	114.446013647725	106
1	3166	114.773328855839	105
1	3191	115.400167332569	106
1	3192	115.773328855839	105
1	3208	115.902832206289	106
1	3217	116.400167332569	107
1	3220	116.433554702906	108
1	3224	116.773328855839	107
1	3240	116.938573450661	108
1	3249	117.400167332569	109
1	3253	117.773328855839	108
1	3278	118.400167332569	109
1	3279	118.773328855839	108
1	3298	119.068072846729	109
1	3310	119.400167332569	110
1	3311	119.773328855839	109
1	3333	120.400167332569	110
1	3334	120.773328855839	109
1	3350	121.202903296712	110
1	3359	121.400167332569	111
1	3360	121.773328855839	110
1	3376	122.382286230357	111
1	3385	122.400167332569	112
1	3389	122.773328855839	111
1	3405	123.270147640794	112
1	3414	123.400167332569	113
1	3415	123.773328855839	112
1	3434	124.34798252493	113
1	3443	124.400167332569	114
1	3447	124.773328855839	113
1	3463	125.109850296226	114
1	3466	125.371907537901	115
1	3475	125.400167332569	116
1	3476	125.773328855839	115
1	3498	126.400167332569	116
1	3501	126.404704548546	117
1	3502	126.773328855839	116
1	3518	126.907015346807	117
1	3527	127.400167332569	118
1	3530	127.458411336941	119
1	3535	127.773328855839	118
1	3552	128.400167332569	119
1	3555	128.422864902435	120
1	3567	128.773328855839	119
1	3583	129.066969610758	120
1	3589	129.425896826628	121
1	3598	129.649252527223	122
1	3599	129.773328855839	121
1	3618	130.505217025284	122
1	3627	130.649252527223	123
1	3628	130.773328855839	122
1	3647	130.847816649982	123
1	3659	131.649252527223	124
1	3660	131.773328855839	123
1	3676	131.810191705753	124
1	3679	132.370152775827	125
1	3688	132.649252527223	126
1	3692	132.773328855839	125
1	3726	133.649252527223	126
1	3727	133.773328855839	125
1	3746	134.477600380777	126
1	3755	134.649252527223	127
1	3759	134.773328855839	126
1	3775	135.371329459083	127
1	3790	135.649252527223	128
1	3791	135.773328855839	127
1	3807	136.225409194726	128
1	3819	136.649252527223	129
1	3820	136.773328855839	128
1	3845	137.649252527223	129
1	3846	137.773328855839	128
1	3874	138.649252527223	129
1	3875	138.773328855839	128
1	3900	139.649252527223	129
1	3903	139.697944674008	130
1	3904	139.773328855839	129
1	3920	139.850238299262	130
1	3923	140.30841118322	131
1	3926	140.410731798073	132
1	3935	140.649252527223	133
1	3936	140.773328855839	132
1	3952	140.983193349501	133
1	3964	141.649252527223	134
1	3965	141.773328855839	133
1	3987	142.649252527223	134
1	3988	142.773328855839	133
1	4016	143.649252527223	134
1	4017	143.773328855839	133
1	4039	144.649252527223	134
1	4040	144.773328855839	133
1	4056	145.121003110011	134
1	4068	145.649252527223	135
1	4069	145.773328855839	134
1	4085	145.891079969557	135
1	4088	146.485153467881	136
1	4094	146.59076611151	137
1	4106	146.649252527223	138
1	4107	146.773328855839	137
1	4132	147.649252527223	138
1	4133	147.773328855839	137
1	4158	148.649252527223	138
1	4159	148.773328855839	137
1	4178	149.110048241593	138
1	4187	149.649252527223	139
1	4188	149.773328855839	138
1	4210	150.649252527223	139
1	4211	150.773328855839	138
1	4227	150.94978102667	139
1	4230	151.111651113382	140
1	4239	151.649252527223	141
1	4240	151.773328855839	140
1	4262	152.649252527223	141
1	4263	152.773328855839	140
1	4279	153.461828403133	141
1	4288	153.649252527223	142
1	4289	153.773328855839	141
1	4311	154.649252527223	142
1	4312	154.773328855839	141
1	4328	155.487737220236	142
1	4331	155.526020133121	143
1	4340	155.649252527223	144
1	4346	155.703345708266	145
1	4347	155.773328855839	144
1	4375	156.649252527223	145
1	4378	156.659312132188	146
1	4382	156.773328855839	145
1	4404	157.649252527223	146
1	4405	157.773328855839	145
1	4421	158.169135587797	146
1	4433	158.649252527223	147
1	4434	158.773328855839	146
1	4456	159.649252527223	147
1	4457	159.773328855839	146
1	4473	160.171122083323	147
1	4485	160.649252527223	148
1	4488	160.70112496146	149
1	4489	160.773328855839	148
1	4505	160.851915971654	149
1	4517	161.374786001742	150
1	4526	161.649252527223	151
1	4527	161.773328855839	150
1	4543	162.570224568024	151
1	4552	162.649252527223	152
1	4553	162.773328855839	151
1	4569	163.037497134434	152
1	4572	163.641796206282	153
1	4581	163.649252527223	154
1	4582	163.773328855839	153
1	4598	164.186653334427	154
1	4607	164.649252527223	155
1	4608	164.773328855839	154
1	4630	165.466987538239	155
1	4639	165.649252527223	156
1	4640	165.773328855839	155
1	4656	165.921899383031	156
1	4665	166.649252527223	157
1	4666	166.773328855839	156
1	4694	167.649252527223	157
1	4695	167.773328855839	156
1	4717	168.649252527223	157
1	4718	168.773328855839	156
1	4743	169.631859974935	157
1	4752	169.649252527223	158
1	4753	169.773328855839	157
1	4769	170.078112795454	158
1	4778	170.649252527223	159
1	4779	170.773328855839	158
1	4804	171.649252527223	159
1	4805	171.773328855839	158
1	4830	172.649252527223	159
1	4831	172.773328855839	158
1	4847	172.962724547556	159
1	4850	173.151019522775	160
1	4853	173.565632065434	161
1	4862	173.649252527223	162
1	4866	173.773328855839	161
1	4882	174.301763165421	162
1	4888	174.35763321831	163
1	4891	174.580772426411	164
1	4900	174.649252527223	165
1	4904	174.773328855839	164
1	4923	174.77860193387	165
1	4938	175.649252527223	166
1	4939	175.773328855839	165
1	4958	176.357014655976	166
1	4967	176.649252527223	167
1	4968	176.773328855839	166
1	4984	176.780671757333	167
1	4993	177.649252527223	168
1	4994	177.773328855839	167
1	5019	178.649252527223	168
1	5020	178.773328855839	167
1	5042	179.649252527223	168
1	5045	179.66521604574	169
1	5046	179.773328855839	168
1	5065	180.602354763463	169
1	5074	180.649252527223	170
1	5075	180.773328855839	169
1	5091	181.510318790788	170
1	5094	181.542675595433	171
1	5103	181.649252527223	172
1	5107	181.773328855839	171
1	5135	182.649252527223	172
1	5136	182.773328855839	171
1	5152	183.0735068217	172
1	5155	183.125189727495	173
1	5167	183.649252527223	174
1	5168	183.773328855839	173
1	5184	183.986113364176	174
1	5187	184.257781434518	175
1	5196	184.649252527223	176
1	5197	184.773328855839	175
1	5222	185.649252527223	176
1	5223	185.773328855839	175
1	5245	186.649252527223	176
1	5246	186.773328855839	175
1	5271	187.649252527223	176
1	5272	187.773328855839	175
1	5297	188.649252527223	176
1	5298	188.773328855839	175
1	5317	189.136914322512	176
1	5326	189.649252527223	177
1	5327	189.773328855839	176
1	5343	189.903993977084	177
1	5355	190.649252527223	178
1	5356	190.773328855839	177
1	5381	191.649252527223	178
1	5382	191.773328855839	177
1	5398	191.901165944574	178
1	5410	192.649252527223	179
1	5411	192.773328855839	178
1	5427	193.210951315936	179
1	5430	193.584837811839	180
1	5439	193.649252527223	181
1	5440	193.773328855839	180
1	5456	194.392817865238	181
1	5465	194.649252527223	182
1	5466	194.773328855839	181
1	5482	194.900682987925	182
1	5485	195.139435860773	183
1	5488	195.374960434192	184
1	5494	195.626559047305	185
1	5503	195.649252527223	186